Title

9 atoms
9 bonds
12 angles
12 dihedrals
9 impropers

3 atom types
2 bond types
3 angle types
1 dihedral types
1 improper types
-1.588661029 48.41133897 xlo xhi
-1.828828667 48.17117133 ylo yhi
-0.2334208844 49.76657912 zlo zhi
0.0 0.0 0.0 xy xz yz

Masses

1	14.00672
2	12.01078
3	1.007947


Pair Coeffs

1	0.16769152	3.206876
2	0.086879315	3.4806469
3	0.014797445	2.4419228

Bond Coeffs

1	380.20465272825	1.337191333766
2	387.6926691923	1.081823673944


Angle Coeffs

1	73.52072066505001	119.8314000445
2	30.881385106405	119.6660147945
3	136.2143272331	118.7711698022


Dihedral Coeffs

1 1	2.205122974863	2	180


Improper Coeffs

1 1.743596855104667	-1	2


Atoms

1	1	1	-0.71633333	0.87825834	1.0152672	-0.18238578
2	1	2	0.65356667	-0.41785874	1.271362	-0.17027605
3	1	1	-0.71633333	-1.307344	0.24005623	-0.074924617
4	1	2	0.65356667	-0.88396573	-1.0281057	0.0065356761
5	1	1	-0.71633333	0.43580184	-1.2407095	-0.0092719108
6	1	2	0.65356667	1.3236887	-0.23856563	-0.10248329
7	1	3	0.062766667	-0.80798728	2.2745376	-0.23342088
8	1	3	0.062766667	-1.588661	-1.8288287	0.080907969
9	1	3	0.062766667	2.3680679	-0.46501344	-0.11078982

Bonds

1	1	1	2
2	1	1	6
3	1	2	3
4	2	2	7
5	1	3	4
6	1	4	5
7	2	4	8
8	1	5	6
9	2	6	9

Angles

1	1	1	2	3
2	2	1	2	7
3	1	1	6	5
4	2	1	6	9
5	3	2	1	6
6	3	2	3	4
7	2	3	2	7
8	1	3	4	5
9	2	3	4	8
10	3	4	5	6
11	2	5	4	8
12	2	5	6	9

Dihedrals

1	1	1	2	3	4
2	1	1	6	5	4
3	1	2	1	6	5
4	1	2	1	6	9
5	1	2	3	4	5
6	1	2	3	4	8
7	1	3	2	1	6
8	1	3	4	5	6
9	1	4	3	2	7
10	1	4	5	6	9
11	1	6	1	2	7
12	1	6	5	4	8

Impropers

1	1	2	1	3	7
2	1	2	3	7	1
3	1	2	7	1	3
4	1	6	1	5	9
5	1	6	5	9	1
6	1	6	9	1	5
7	1	4	3	5	8
8	1	4	5	8	3
9	1	4	8	3	5
